 # Bcc Mo oriented X=[11-2] Y=[-110] Z=[111].
 
         960  atoms
           3  atom types
 
      0.000000000000      78.873569717618  xlo xhi
      0.000000000000      36.430141366731  ylo yhi
      0.000000000000       5.577203600372  zlo zhi
 
Atoms # atomic
 
1 2 3.943678485881 2.276883835421 0.000000000000
2 3 5.258237981175 0.000000000000 1.859067866791
3 2 0.000000000000 0.000000000000 0.000000000000
4 2 1.314559495294 2.276883835421 1.859067866791
5 2 6.572797476468 2.276883835421 0.929533933395
6 1 2.629118990587 0.000000000000 0.929533933395
7 2 11.831035457643 2.276883835421 0.000000000000
8 2 13.145594952936 0.000000000000 1.859067866791
9 2 7.887356971762 0.000000000000 0.000000000000
10 3 9.201916467055 2.276883835421 1.859067866791
11 2 14.460154448230 2.276883835421 0.929533933395
12 2 10.516475962349 0.000000000000 0.929533933395
13 3 19.718392429405 2.276883835421 0.000000000000
14 2 21.032951924698 0.000000000000 1.859067866791
15 2 15.774713943524 0.000000000000 0.000000000000
16 2 17.089273438817 2.276883835421 1.859067866791
17 1 22.347511419992 2.276883835421 0.929533933395
18 1 18.403832934111 0.000000000000 0.929533933395
19 2 27.605749401166 2.276883835421 0.000000000000
20 3 28.920308896460 0.000000000000 1.859067866791
21 2 23.662070915286 0.000000000000 0.000000000000
22 2 24.976630410579 2.276883835421 1.859067866791
23 2 30.234868391754 2.276883835421 0.929533933395
24 1 26.291189905873 0.000000000000 0.929533933395
25 2 35.493106372928 2.276883835421 0.000000000000
26 3 36.807665868222 0.000000000000 1.859067866791
27 3 31.549427887047 0.000000000000 0.000000000000
28 2 32.863987382341 2.276883835421 1.859067866791
29 3 38.122225363516 2.276883835421 0.929533933395
30 2 34.178546877635 0.000000000000 0.929533933395
31 3 43.380463344690 2.276883835421 0.000000000000
32 1 44.695022839984 0.000000000000 1.859067866791
33 2 39.436784858809 0.000000000000 0.000000000000
34 1 40.751344354103 2.276883835421 1.859067866791
35 2 46.009582335277 2.276883835421 0.929533933395
36 1 42.065903849396 0.000000000000 0.929533933395
37 1 51.267820316452 2.276883835421 0.000000000000
38 2 52.582379811746 0.000000000000 1.859067866791
39 2 47.324141830571 0.000000000000 0.000000000000
40 2 48.638701325865 2.276883835421 1.859067866791
41 1 53.896939307039 2.276883835421 0.929533933395
42 3 49.953260821158 0.000000000000 0.929533933395
43 2 59.155177288214 2.276883835421 0.000000000000
44 1 60.469736783507 0.000000000000 1.859067866791
45 2 55.211498802333 0.000000000000 0.000000000000
46 2 56.526058297626 2.276883835421 1.859067866791
47 2 61.784296278801 2.276883835421 0.929533933395
48 3 57.840617792920 0.000000000000 0.929533933395
49 2 67.042534259976 2.276883835421 0.000000000000
50 2 68.357093755269 0.000000000000 1.859067866791
51 3 63.098855774095 0.000000000000 0.000000000000
52 1 64.413415269388 2.276883835421 1.859067866791
53 2 69.671653250563 2.276883835421 0.929533933395
54 2 65.727974764682 0.000000000000 0.929533933395
55 3 74.929891231737 2.276883835421 0.000000000000
56 2 76.244450727031 0.000000000000 1.859067866791
57 3 70.986212745857 0.000000000000 0.000000000000
58 2 72.300772241150 2.276883835421 1.859067866791
59 1 77.559010222325 2.276883835421 0.929533933395
60 2 73.615331736444 0.000000000000 0.929533933395
61 2 3.943678485881 6.830651506262 0.000000000000
62 1 5.258237981175 4.553767670841 1.859067866791
63 2 0.000000000000 4.553767670841 0.000000000000
64 2 1.314559495294 6.830651506262 1.859067866791
65 3 6.572797476468 6.830651506262 0.929533933395
66 2 2.629118990587 4.553767670841 0.929533933395
67 1 11.831035457643 6.830651506262 0.000000000000
68 2 13.145594952936 4.553767670841 1.859067866791
69 3 7.887356971762 4.553767670841 0.000000000000
70 2 9.201916467055 6.830651506262 1.859067866791
71 2 14.460154448230 6.830651506262 0.929533933395
72 3 10.516475962349 4.553767670841 0.929533933395
73 2 19.718392429405 6.830651506262 0.000000000000
74 2 21.032951924698 4.553767670841 1.859067866791
75 2 15.774713943524 4.553767670841 0.000000000000
76 2 17.089273438817 6.830651506262 1.859067866791
77 2 22.347511419992 6.830651506262 0.929533933395
78 1 18.403832934111 4.553767670841 0.929533933395
79 2 27.605749401166 6.830651506262 0.000000000000
80 1 28.920308896460 4.553767670841 1.859067866791
81 2 23.662070915286 4.553767670841 0.000000000000
82 2 24.976630410579 6.830651506262 1.859067866791
83 2 30.234868391754 6.830651506262 0.929533933395
84 1 26.291189905873 4.553767670841 0.929533933395
85 1 35.493106372928 6.830651506262 0.000000000000
86 2 36.807665868222 4.553767670841 1.859067866791
87 2 31.549427887047 4.553767670841 0.000000000000
88 2 32.863987382341 6.830651506262 1.859067866791
89 2 38.122225363516 6.830651506262 0.929533933395
90 2 34.178546877635 4.553767670841 0.929533933395
91 2 43.380463344690 6.830651506262 0.000000000000
92 2 44.695022839984 4.553767670841 1.859067866791
93 2 39.436784858809 4.553767670841 0.000000000000
94 2 40.751344354103 6.830651506262 1.859067866791
95 2 46.009582335277 6.830651506262 0.929533933395
96 2 42.065903849396 4.553767670841 0.929533933395
97 2 51.267820316452 6.830651506262 0.000000000000
98 1 52.582379811746 4.553767670841 1.859067866791
99 2 47.324141830571 4.553767670841 0.000000000000
100 3 48.638701325865 6.830651506262 1.859067866791
101 2 53.896939307039 6.830651506262 0.929533933395
102 1 49.953260821158 4.553767670841 0.929533933395
103 1 59.155177288214 6.830651506262 0.000000000000
104 2 60.469736783507 4.553767670841 1.859067866791
105 2 55.211498802333 4.553767670841 0.000000000000
106 2 56.526058297626 6.830651506262 1.859067866791
107 2 61.784296278801 6.830651506262 0.929533933395
108 2 57.840617792920 4.553767670841 0.929533933395
109 2 67.042534259976 6.830651506262 0.000000000000
110 2 68.357093755269 4.553767670841 1.859067866791
111 2 63.098855774095 4.553767670841 0.000000000000
112 2 64.413415269388 6.830651506262 1.859067866791
113 2 69.671653250563 6.830651506262 0.929533933395
114 3 65.727974764682 4.553767670841 0.929533933395
115 1 74.929891231737 6.830651506262 0.000000000000
116 1 76.244450727031 4.553767670841 1.859067866791
117 2 70.986212745857 4.553767670841 0.000000000000
118 2 72.300772241150 6.830651506262 1.859067866791
119 2 77.559010222325 6.830651506262 0.929533933395
120 2 73.615331736444 4.553767670841 0.929533933395
121 2 3.943678485881 11.384419177103 0.000000000000
122 2 5.258237981175 9.107535341683 1.859067866791
123 2 0.000000000000 9.107535341683 0.000000000000
124 3 1.314559495294 11.384419177103 1.859067866791
125 2 6.572797476468 11.384419177103 0.929533933395
126 2 2.629118990587 9.107535341683 0.929533933395
127 3 11.831035457643 11.384419177103 0.000000000000
128 2 13.145594952936 9.107535341683 1.859067866791
129 2 7.887356971762 9.107535341683 0.000000000000
130 3 9.201916467055 11.384419177103 1.859067866791
131 3 14.460154448230 11.384419177103 0.929533933395
132 2 10.516475962349 9.107535341683 0.929533933395
133 2 19.718392429405 11.384419177103 0.000000000000
134 3 21.032951924698 9.107535341683 1.859067866791
135 2 15.774713943524 9.107535341683 0.000000000000
136 2 17.089273438817 11.384419177103 1.859067866791
137 2 22.347511419992 11.384419177103 0.929533933395
138 1 18.403832934111 9.107535341683 0.929533933395
139 2 27.605749401166 11.384419177103 0.000000000000
140 3 28.920308896460 9.107535341683 1.859067866791
141 2 23.662070915286 9.107535341683 0.000000000000
142 2 24.976630410579 11.384419177103 1.859067866791
143 2 30.234868391754 11.384419177103 0.929533933395
144 1 26.291189905873 9.107535341683 0.929533933395
145 2 35.493106372928 11.384419177103 0.000000000000
146 3 36.807665868222 9.107535341683 1.859067866791
147 3 31.549427887047 9.107535341683 0.000000000000
148 2 32.863987382341 11.384419177103 1.859067866791
149 3 38.122225363516 11.384419177103 0.929533933395
150 2 34.178546877635 9.107535341683 0.929533933395
151 3 43.380463344690 11.384419177103 0.000000000000
152 2 44.695022839984 9.107535341683 1.859067866791
153 1 39.436784858809 9.107535341683 0.000000000000
154 1 40.751344354103 11.384419177103 1.859067866791
155 2 46.009582335277 11.384419177103 0.929533933395
156 2 42.065903849396 9.107535341683 0.929533933395
157 2 51.267820316452 11.384419177103 0.000000000000
158 3 52.582379811746 9.107535341683 1.859067866791
159 1 47.324141830571 9.107535341683 0.000000000000
160 2 48.638701325865 11.384419177103 1.859067866791
161 1 53.896939307039 11.384419177103 0.929533933395
162 1 49.953260821158 9.107535341683 0.929533933395
163 1 59.155177288214 11.384419177103 0.000000000000
164 3 60.469736783507 9.107535341683 1.859067866791
165 2 55.211498802333 9.107535341683 0.000000000000
166 2 56.526058297626 11.384419177103 1.859067866791
167 2 61.784296278801 11.384419177103 0.929533933395
168 2 57.840617792920 9.107535341683 0.929533933395
169 2 67.042534259976 11.384419177103 0.000000000000
170 1 68.357093755269 9.107535341683 1.859067866791
171 2 63.098855774095 9.107535341683 0.000000000000
172 2 64.413415269388 11.384419177103 1.859067866791
173 2 69.671653250563 11.384419177103 0.929533933395
174 2 65.727974764682 9.107535341683 0.929533933395
175 3 74.929891231737 11.384419177103 0.000000000000
176 2 76.244450727031 9.107535341683 1.859067866791
177 2 70.986212745857 9.107535341683 0.000000000000
178 2 72.300772241150 11.384419177103 1.859067866791
179 2 77.559010222325 11.384419177103 0.929533933395
180 1 73.615331736444 9.107535341683 0.929533933395
181 1 3.943678485881 15.938186847945 0.000000000000
182 2 5.258237981175 13.661303012524 1.859067866791
183 2 0.000000000000 13.661303012524 0.000000000000
184 1 1.314559495294 15.938186847945 1.859067866791
185 2 6.572797476468 15.938186847945 0.929533933395
186 2 2.629118990587 13.661303012524 0.929533933395
187 3 11.831035457643 15.938186847945 0.000000000000
188 1 13.145594952936 13.661303012524 1.859067866791
189 2 7.887356971762 13.661303012524 0.000000000000
190 1 9.201916467055 15.938186847945 1.859067866791
191 3 14.460154448230 15.938186847945 0.929533933395
192 3 10.516475962349 13.661303012524 0.929533933395
193 2 19.718392429405 15.938186847945 0.000000000000
194 3 21.032951924698 13.661303012524 1.859067866791
195 2 15.774713943524 13.661303012524 0.000000000000
196 2 17.089273438817 15.938186847945 1.859067866791
197 3 22.347511419992 15.938186847945 0.929533933395
198 2 18.403832934111 13.661303012524 0.929533933395
199 2 27.605749401166 15.938186847945 0.000000000000
200 1 28.920308896460 13.661303012524 1.859067866791
201 2 23.662070915286 13.661303012524 0.000000000000
202 2 24.976630410579 15.938186847945 1.859067866791
203 2 30.234868391754 15.938186847945 0.929533933395
204 2 26.291189905873 13.661303012524 0.929533933395
205 2 35.493106372928 15.938186847945 0.000000000000
206 1 36.807665868222 13.661303012524 1.859067866791
207 2 31.549427887047 13.661303012524 0.000000000000
208 3 32.863987382341 15.938186847945 1.859067866791
209 2 38.122225363516 15.938186847945 0.929533933395
210 2 34.178546877635 13.661303012524 0.929533933395
211 3 43.380463344690 15.938186847945 0.000000000000
212 2 44.695022839984 13.661303012524 1.859067866791
213 2 39.436784858809 13.661303012524 0.000000000000
214 3 40.751344354103 15.938186847945 1.859067866791
215 2 46.009582335277 15.938186847945 0.929533933395
216 3 42.065903849396 13.661303012524 0.929533933395
217 2 51.267820316452 15.938186847945 0.000000000000
218 2 52.582379811746 13.661303012524 1.859067866791
219 2 47.324141830571 13.661303012524 0.000000000000
220 2 48.638701325865 15.938186847945 1.859067866791
221 1 53.896939307039 15.938186847945 0.929533933395
222 2 49.953260821158 13.661303012524 0.929533933395
223 2 59.155177288214 15.938186847945 0.000000000000
224 2 60.469736783507 13.661303012524 1.859067866791
225 2 55.211498802333 13.661303012524 0.000000000000
226 1 56.526058297626 15.938186847945 1.859067866791
227 2 61.784296278801 15.938186847945 0.929533933395
228 2 57.840617792920 13.661303012524 0.929533933395
229 2 67.042534259976 15.938186847945 0.000000000000
230 1 68.357093755269 13.661303012524 1.859067866791
231 2 63.098855774095 13.661303012524 0.000000000000
232 2 64.413415269388 15.938186847945 1.859067866791
233 2 69.671653250563 15.938186847945 0.929533933395
234 1 65.727974764682 13.661303012524 0.929533933395
235 3 74.929891231737 15.938186847945 0.000000000000
236 1 76.244450727031 13.661303012524 1.859067866791
237 3 70.986212745857 13.661303012524 0.000000000000
238 2 72.300772241150 15.938186847945 1.859067866791
239 3 77.559010222325 15.938186847945 0.929533933395
240 1 73.615331736444 13.661303012524 0.929533933395
241 3 3.943678485881 20.491954518786 0.000000000000
242 2 5.258237981175 18.215070683365 1.859067866791
243 1 0.000000000000 18.215070683365 0.000000000000
244 3 1.314559495294 20.491954518786 1.859067866791
245 2 6.572797476468 20.491954518786 0.929533933395
246 2 2.629118990587 18.215070683365 0.929533933395
247 2 11.831035457643 20.491954518786 0.000000000000
248 2 13.145594952936 18.215070683365 1.859067866791
249 2 7.887356971762 18.215070683365 0.000000000000
250 2 9.201916467055 20.491954518786 1.859067866791
251 2 14.460154448230 20.491954518786 0.929533933395
252 2 10.516475962349 18.215070683365 0.929533933395
253 2 19.718392429405 20.491954518786 0.000000000000
254 1 21.032951924698 18.215070683365 1.859067866791
255 2 15.774713943524 18.215070683365 0.000000000000
256 3 17.089273438817 20.491954518786 1.859067866791
257 2 22.347511419992 20.491954518786 0.929533933395
258 2 18.403832934111 18.215070683365 0.929533933395
259 2 27.605749401166 20.491954518786 0.000000000000
260 2 28.920308896460 18.215070683365 1.859067866791
261 2 23.662070915286 18.215070683365 0.000000000000
262 2 24.976630410579 20.491954518786 1.859067866791
263 2 30.234868391754 20.491954518786 0.929533933395
264 2 26.291189905873 18.215070683365 0.929533933395
265 2 35.493106372928 20.491954518786 0.000000000000
266 3 36.807665868222 18.215070683365 1.859067866791
267 2 31.549427887047 18.215070683365 0.000000000000
268 2 32.863987382341 20.491954518786 1.859067866791
269 3 38.122225363516 20.491954518786 0.929533933395
270 2 34.178546877635 18.215070683365 0.929533933395
271 2 43.380463344690 20.491954518786 0.000000000000
272 2 44.695022839984 18.215070683365 1.859067866791
273 2 39.436784858809 18.215070683365 0.000000000000
274 2 40.751344354103 20.491954518786 1.859067866791
275 2 46.009582335277 20.491954518786 0.929533933395
276 2 42.065903849396 18.215070683365 0.929533933395
277 2 51.267820316452 20.491954518786 0.000000000000
278 2 52.582379811746 18.215070683365 1.859067866791
279 2 47.324141830571 18.215070683365 0.000000000000
280 2 48.638701325865 20.491954518786 1.859067866791
281 2 53.896939307039 20.491954518786 0.929533933395
282 2 49.953260821158 18.215070683365 0.929533933395
283 1 59.155177288214 20.491954518786 0.000000000000
284 3 60.469736783507 18.215070683365 1.859067866791
285 2 55.211498802333 18.215070683365 0.000000000000
286 3 56.526058297626 20.491954518786 1.859067866791
287 1 61.784296278801 20.491954518786 0.929533933395
288 2 57.840617792920 18.215070683365 0.929533933395
289 1 67.042534259976 20.491954518786 0.000000000000
290 2 68.357093755269 18.215070683365 1.859067866791
291 2 63.098855774095 18.215070683365 0.000000000000
292 1 64.413415269388 20.491954518786 1.859067866791
293 1 69.671653250563 20.491954518786 0.929533933395
294 3 65.727974764682 18.215070683365 0.929533933395
295 2 74.929891231737 20.491954518786 0.000000000000
296 2 76.244450727031 18.215070683365 1.859067866791
297 2 70.986212745857 18.215070683365 0.000000000000
298 2 72.300772241150 20.491954518786 1.859067866791
299 2 77.559010222325 20.491954518786 0.929533933395
300 2 73.615331736444 18.215070683365 0.929533933395
301 1 3.943678485881 25.045722189628 0.000000000000
302 1 5.258237981175 22.768838354207 1.859067866791
303 2 0.000000000000 22.768838354207 0.000000000000
304 2 1.314559495294 25.045722189628 1.859067866791
305 1 6.572797476468 25.045722189628 0.929533933395
306 2 2.629118990587 22.768838354207 0.929533933395
307 2 11.831035457643 25.045722189628 0.000000000000
308 2 13.145594952936 22.768838354207 1.859067866791
309 2 7.887356971762 22.768838354207 0.000000000000
310 1 9.201916467055 25.045722189628 1.859067866791
311 2 14.460154448230 25.045722189628 0.929533933395
312 3 10.516475962349 22.768838354207 0.929533933395
313 2 19.718392429405 25.045722189628 0.000000000000
314 2 21.032951924698 22.768838354207 1.859067866791
315 3 15.774713943524 22.768838354207 0.000000000000
316 3 17.089273438817 25.045722189628 1.859067866791
317 3 22.347511419992 25.045722189628 0.929533933395
318 2 18.403832934111 22.768838354207 0.929533933395
319 2 27.605749401166 25.045722189628 0.000000000000
320 1 28.920308896460 22.768838354207 1.859067866791
321 2 23.662070915286 22.768838354207 0.000000000000
322 2 24.976630410579 25.045722189628 1.859067866791
323 2 30.234868391754 25.045722189628 0.929533933395
324 2 26.291189905873 22.768838354207 0.929533933395
325 2 35.493106372928 25.045722189628 0.000000000000
326 2 36.807665868222 22.768838354207 1.859067866791
327 1 31.549427887047 22.768838354207 0.000000000000
328 1 32.863987382341 25.045722189628 1.859067866791
329 2 38.122225363516 25.045722189628 0.929533933395
330 2 34.178546877635 22.768838354207 0.929533933395
331 2 43.380463344690 25.045722189628 0.000000000000
332 2 44.695022839984 22.768838354207 1.859067866791
333 2 39.436784858809 22.768838354207 0.000000000000
334 2 40.751344354103 25.045722189628 1.859067866791
335 3 46.009582335277 25.045722189628 0.929533933395
336 2 42.065903849396 22.768838354207 0.929533933395
337 3 51.267820316452 25.045722189628 0.000000000000
338 2 52.582379811746 22.768838354207 1.859067866791
339 3 47.324141830571 22.768838354207 0.000000000000
340 1 48.638701325865 25.045722189628 1.859067866791
341 1 53.896939307039 25.045722189628 0.929533933395
342 2 49.953260821158 22.768838354207 0.929533933395
343 3 59.155177288214 25.045722189628 0.000000000000
344 3 60.469736783507 22.768838354207 1.859067866791
345 2 55.211498802333 22.768838354207 0.000000000000
346 2 56.526058297626 25.045722189628 1.859067866791
347 1 61.784296278801 25.045722189628 0.929533933395
348 2 57.840617792920 22.768838354207 0.929533933395
349 2 67.042534259976 25.045722189628 0.000000000000
350 1 68.357093755269 22.768838354207 1.859067866791
351 3 63.098855774095 22.768838354207 0.000000000000
352 2 64.413415269388 25.045722189628 1.859067866791
353 3 69.671653250563 25.045722189628 0.929533933395
354 2 65.727974764682 22.768838354207 0.929533933395
355 2 74.929891231737 25.045722189628 0.000000000000
356 2 76.244450727031 22.768838354207 1.859067866791
357 2 70.986212745857 22.768838354207 0.000000000000
358 3 72.300772241150 25.045722189628 1.859067866791
359 2 77.559010222325 25.045722189628 0.929533933395
360 2 73.615331736444 22.768838354207 0.929533933395
361 3 3.943678485881 29.599489860469 0.000000000000
362 2 5.258237981175 27.322606025048 1.859067866791
363 1 0.000000000000 27.322606025048 0.000000000000
364 2 1.314559495294 29.599489860469 1.859067866791
365 2 6.572797476468 29.599489860469 0.929533933395
366 2 2.629118990587 27.322606025048 0.929533933395
367 2 11.831035457643 29.599489860469 0.000000000000
368 1 13.145594952936 27.322606025048 1.859067866791
369 2 7.887356971762 27.322606025048 0.000000000000
370 2 9.201916467055 29.599489860469 1.859067866791
371 2 14.460154448230 29.599489860469 0.929533933395
372 3 10.516475962349 27.322606025048 0.929533933395
373 2 19.718392429405 29.599489860469 0.000000000000
374 3 21.032951924698 27.322606025048 1.859067866791
375 3 15.774713943524 27.322606025048 0.000000000000
376 2 17.089273438817 29.599489860469 1.859067866791
377 3 22.347511419992 29.599489860469 0.929533933395
378 2 18.403832934111 27.322606025048 0.929533933395
379 3 27.605749401166 29.599489860469 0.000000000000
380 3 28.920308896460 27.322606025048 1.859067866791
381 2 23.662070915286 27.322606025048 0.000000000000
382 2 24.976630410579 29.599489860469 1.859067866791
383 3 30.234868391754 29.599489860469 0.929533933395
384 2 26.291189905873 27.322606025048 0.929533933395
385 2 35.493106372928 29.599489860469 0.000000000000
386 2 36.807665868222 27.322606025048 1.859067866791
387 1 31.549427887047 27.322606025048 0.000000000000
388 1 32.863987382341 29.599489860469 1.859067866791
389 2 38.122225363516 29.599489860469 0.929533933395
390 2 34.178546877635 27.322606025048 0.929533933395
391 2 43.380463344690 29.599489860469 0.000000000000
392 3 44.695022839984 27.322606025048 1.859067866791
393 2 39.436784858809 27.322606025048 0.000000000000
394 3 40.751344354103 29.599489860469 1.859067866791
395 2 46.009582335277 29.599489860469 0.929533933395
396 2 42.065903849396 27.322606025048 0.929533933395
397 2 51.267820316452 29.599489860469 0.000000000000
398 1 52.582379811746 27.322606025048 1.859067866791
399 2 47.324141830571 27.322606025048 0.000000000000
400 2 48.638701325865 29.599489860469 1.859067866791
401 1 53.896939307039 29.599489860469 0.929533933395
402 2 49.953260821158 27.322606025048 0.929533933395
403 2 59.155177288214 29.599489860469 0.000000000000
404 1 60.469736783507 27.322606025048 1.859067866791
405 1 55.211498802333 27.322606025048 0.000000000000
406 3 56.526058297626 29.599489860469 1.859067866791
407 2 61.784296278801 29.599489860469 0.929533933395
408 3 57.840617792920 27.322606025048 0.929533933395
409 2 67.042534259976 29.599489860469 0.000000000000
410 3 68.357093755269 27.322606025048 1.859067866791
411 3 63.098855774095 27.322606025048 0.000000000000
412 2 64.413415269388 29.599489860469 1.859067866791
413 2 69.671653250563 29.599489860469 0.929533933395
414 1 65.727974764682 27.322606025048 0.929533933395
415 1 74.929891231737 29.599489860469 0.000000000000
416 2 76.244450727031 27.322606025048 1.859067866791
417 1 70.986212745857 27.322606025048 0.000000000000
418 2 72.300772241150 29.599489860469 1.859067866791
419 2 77.559010222325 29.599489860469 0.929533933395
420 1 73.615331736444 27.322606025048 0.929533933395
421 3 3.943678485881 34.153257531310 0.000000000000
422 2 5.258237981175 31.876373695890 1.859067866791
423 3 0.000000000000 31.876373695890 0.000000000000
424 2 1.314559495294 34.153257531310 1.859067866791
425 2 6.572797476468 34.153257531310 0.929533933395
426 2 2.629118990587 31.876373695890 0.929533933395
427 3 11.831035457643 34.153257531310 0.000000000000
428 3 13.145594952936 31.876373695890 1.859067866791
429 2 7.887356971762 31.876373695890 0.000000000000
430 3 9.201916467055 34.153257531310 1.859067866791
431 3 14.460154448230 34.153257531310 0.929533933395
432 2 10.516475962349 31.876373695890 0.929533933395
433 2 19.718392429405 34.153257531310 0.000000000000
434 2 21.032951924698 31.876373695890 1.859067866791
435 2 15.774713943524 31.876373695890 0.000000000000
436 1 17.089273438817 34.153257531310 1.859067866791
437 3 22.347511419992 34.153257531310 0.929533933395
438 3 18.403832934111 31.876373695890 0.929533933395
439 2 27.605749401166 34.153257531310 0.000000000000
440 2 28.920308896460 31.876373695890 1.859067866791
441 2 23.662070915286 31.876373695890 0.000000000000
442 3 24.976630410579 34.153257531310 1.859067866791
443 2 30.234868391754 34.153257531310 0.929533933395
444 2 26.291189905873 31.876373695890 0.929533933395
445 2 35.493106372928 34.153257531310 0.000000000000
446 2 36.807665868222 31.876373695890 1.859067866791
447 1 31.549427887047 31.876373695890 0.000000000000
448 1 32.863987382341 34.153257531310 1.859067866791
449 2 38.122225363516 34.153257531310 0.929533933395
450 3 34.178546877635 31.876373695890 0.929533933395
451 3 43.380463344690 34.153257531310 0.000000000000
452 2 44.695022839984 31.876373695890 1.859067866791
453 1 39.436784858809 31.876373695890 0.000000000000
454 1 40.751344354103 34.153257531310 1.859067866791
455 1 46.009582335277 34.153257531310 0.929533933395
456 2 42.065903849396 31.876373695890 0.929533933395
457 2 51.267820316452 34.153257531310 0.000000000000
458 2 52.582379811746 31.876373695890 1.859067866791
459 2 47.324141830571 31.876373695890 0.000000000000
460 2 48.638701325865 34.153257531310 1.859067866791
461 2 53.896939307039 34.153257531310 0.929533933395
462 2 49.953260821158 31.876373695890 0.929533933395
463 1 59.155177288214 34.153257531310 0.000000000000
464 2 60.469736783507 31.876373695890 1.859067866791
465 2 55.211498802333 31.876373695890 0.000000000000
466 1 56.526058297626 34.153257531310 1.859067866791
467 2 61.784296278801 34.153257531310 0.929533933395
468 2 57.840617792920 31.876373695890 0.929533933395
469 2 67.042534259976 34.153257531310 0.000000000000
470 2 68.357093755269 31.876373695890 1.859067866791
471 2 63.098855774095 31.876373695890 0.000000000000
472 2 64.413415269388 34.153257531310 1.859067866791
473 2 69.671653250563 34.153257531310 0.929533933395
474 2 65.727974764682 31.876373695890 0.929533933395
475 2 74.929891231737 34.153257531310 0.000000000000
476 2 76.244450727031 31.876373695890 1.859067866791
477 1 70.986212745857 31.876373695890 0.000000000000
478 2 72.300772241150 34.153257531310 1.859067866791
479 1 77.559010222325 34.153257531310 0.929533933395
480 1 73.615331736444 31.876373695890 0.929533933395
481 2 3.943678485881 2.276883835421 2.788601800186
482 3 5.258237981175 0.000000000000 4.647669666976
483 2 0.000000000000 0.000000000000 2.788601800186
484 2 1.314559495294 2.276883835421 4.647669666976
485 2 6.572797476468 2.276883835421 3.718135733581
486 3 2.629118990587 0.000000000000 3.718135733581
487 1 11.831035457643 2.276883835421 2.788601800186
488 3 13.145594952936 0.000000000000 4.647669666976
489 2 7.887356971762 0.000000000000 2.788601800186
490 2 9.201916467055 2.276883835421 4.647669666976
491 1 14.460154448230 2.276883835421 3.718135733581
492 3 10.516475962349 0.000000000000 3.718135733581
493 1 19.718392429405 2.276883835421 2.788601800186
494 1 21.032951924698 0.000000000000 4.647669666976
495 2 15.774713943524 0.000000000000 2.788601800186
496 2 17.089273438817 2.276883835421 4.647669666976
497 2 22.347511419992 2.276883835421 3.718135733581
498 3 18.403832934111 0.000000000000 3.718135733581
499 1 27.605749401166 2.276883835421 2.788601800186
500 2 28.920308896460 0.000000000000 4.647669666976
501 3 23.662070915286 0.000000000000 2.788601800186
502 1 24.976630410579 2.276883835421 4.647669666976
503 3 30.234868391754 2.276883835421 3.718135733581
504 3 26.291189905873 0.000000000000 3.718135733581
505 1 35.493106372928 2.276883835421 2.788601800186
506 1 36.807665868222 0.000000000000 4.647669666976
507 1 31.549427887047 0.000000000000 2.788601800186
508 2 32.863987382341 2.276883835421 4.647669666976
509 2 38.122225363516 2.276883835421 3.718135733581
510 1 34.178546877635 0.000000000000 3.718135733581
511 2 43.380463344690 2.276883835421 2.788601800186
512 3 44.695022839984 0.000000000000 4.647669666976
513 2 39.436784858809 0.000000000000 2.788601800186
514 3 40.751344354103 2.276883835421 4.647669666976
515 1 46.009582335277 2.276883835421 3.718135733581
516 3 42.065903849396 0.000000000000 3.718135733581
517 1 51.267820316452 2.276883835421 2.788601800186
518 1 52.582379811746 0.000000000000 4.647669666976
519 2 47.324141830571 0.000000000000 2.788601800186
520 2 48.638701325865 2.276883835421 4.647669666976
521 2 53.896939307039 2.276883835421 3.718135733581
522 2 49.953260821158 0.000000000000 3.718135733581
523 2 59.155177288214 2.276883835421 2.788601800186
524 2 60.469736783507 0.000000000000 4.647669666976
525 2 55.211498802333 0.000000000000 2.788601800186
526 2 56.526058297626 2.276883835421 4.647669666976
527 1 61.784296278801 2.276883835421 3.718135733581
528 1 57.840617792920 0.000000000000 3.718135733581
529 1 67.042534259976 2.276883835421 2.788601800186
530 1 68.357093755269 0.000000000000 4.647669666976
531 2 63.098855774095 0.000000000000 2.788601800186
532 2 64.413415269388 2.276883835421 4.647669666976
533 2 69.671653250563 2.276883835421 3.718135733581
534 3 65.727974764682 0.000000000000 3.718135733581
535 2 74.929891231737 2.276883835421 2.788601800186
536 2 76.244450727031 0.000000000000 4.647669666976
537 2 70.986212745857 0.000000000000 2.788601800186
538 2 72.300772241150 2.276883835421 4.647669666976
539 1 77.559010222325 2.276883835421 3.718135733581
540 2 73.615331736444 0.000000000000 3.718135733581
541 1 3.943678485881 6.830651506262 2.788601800186
542 2 5.258237981175 4.553767670841 4.647669666976
543 2 0.000000000000 4.553767670841 2.788601800186
544 2 1.314559495294 6.830651506262 4.647669666976
545 3 6.572797476468 6.830651506262 3.718135733581
546 2 2.629118990587 4.553767670841 3.718135733581
547 3 11.831035457643 6.830651506262 2.788601800186
548 3 13.145594952936 4.553767670841 4.647669666976
549 2 7.887356971762 4.553767670841 2.788601800186
550 2 9.201916467055 6.830651506262 4.647669666976
551 3 14.460154448230 6.830651506262 3.718135733581
552 2 10.516475962349 4.553767670841 3.718135733581
553 3 19.718392429405 6.830651506262 2.788601800186
554 2 21.032951924698 4.553767670841 4.647669666976
555 2 15.774713943524 4.553767670841 2.788601800186
556 2 17.089273438817 6.830651506262 4.647669666976
557 1 22.347511419992 6.830651506262 3.718135733581
558 2 18.403832934111 4.553767670841 3.718135733581
559 3 27.605749401166 6.830651506262 2.788601800186
560 2 28.920308896460 4.553767670841 4.647669666976
561 2 23.662070915286 4.553767670841 2.788601800186
562 3 24.976630410579 6.830651506262 4.647669666976
563 2 30.234868391754 6.830651506262 3.718135733581
564 1 26.291189905873 4.553767670841 3.718135733581
565 2 35.493106372928 6.830651506262 2.788601800186
566 2 36.807665868222 4.553767670841 4.647669666976
567 2 31.549427887047 4.553767670841 2.788601800186
568 1 32.863987382341 6.830651506262 4.647669666976
569 2 38.122225363516 6.830651506262 3.718135733581