 # Bcc Mo oriented X=[11-2] Y=[-110] Z=[111].
 
         960  atoms
           3  atom types
 
      0.000000000000      80.110828974130  xlo xhi
      0.000000000000      36.995826790000  ylo yhi
      0.000000000000       5.662921377645  zlo zhi
      0.000000000000       0.100107253025       0.000000000000  xy xz yz
 
Atoms # atomic
 
         1    1        3.982337340840       2.312239170000      -1.312622585749
         2    1        5.351015616537       0.000000000000       0.582298713587
         3    1       -0.021836474758      -0.000000000000      -1.235257546084
         4    1        1.345986258501       2.312239170000       0.611266964660
         5    1        6.668768303646       2.312239170000      -0.403566299372
         6    1        2.664576854323      -0.000000000000      -0.327198773857
         7    1       11.991678035863       2.312239170000      -1.411176491922
         8    1       13.360483176217       0.000000000000       0.490921356167
         9    1        7.987430858085      -0.000000000000      -1.337961443871
        10    1        9.355230841616       2.312239170000       0.507276147939
        11    1       14.678225638570       2.312239170000      -0.495522056425
        12    1       10.673935569622      -0.000000000000      -0.424733299296
        13    1       20.001453575515       2.312239170000      -1.485131871314
        14    1       21.370425565411       0.000000000000       0.426404412134
        15    1       15.997028692620      -0.000000000000      -1.421969342679
        16    1       17.364830811987       2.312239170000       0.423389070253
        17    1       22.688218207888       2.312239170000      -0.557200383957
        18    1       18.683689865625      -0.000000000000      -0.499890400933
        19    1       28.012043521200       2.312239170000      -1.513017488544
        20    1       29.381171939159       0.000000000000       0.407367702370
        21    1       24.007196490800      -0.000000000000      -1.473735228909
        22    1       25.375091656539       2.312239170000       0.376886681666
        23    1       30.699203631940       2.312239170000      -0.562714366482
        24    1       26.694125161521      -0.000000000000      -0.536524331347
        25    1       36.023970767754       2.312239170000      -1.465253945033
        26    1       37.392985775978       0.000000000000       0.448716388301
        27    1       32.018291666310      -0.000000000000      -1.473040731434
        28    1       33.386532729824       2.312239170000       0.397148112047
        29    1       38.711584571720       2.312239170000      -0.489285492688
        30    1       34.705588171487      -0.000000000000      -0.515021974845
        31    1       44.036804579863       2.312239170000      -1.366206743790
        32    1       45.405240802465       0.000000000000       0.515021964847
        33    1       40.030387668721      -0.000000000000      -1.415730349322
        34    1       41.399244392411       2.312239170000       0.489285492865
        35    1       46.724296244305       2.312239170000      -0.397148112047
        36    1       42.717843187976      -0.000000000000      -0.448716398123
        37    1       52.048731826240       2.312239170000      -1.318443210277
        38    1       53.416703812609       0.000000000000       0.536524331347
        39    1       48.042483681130      -0.000000000000      -1.358419967388
        40    1       49.411625342190       2.312239170000       0.562714366482
        41    1       54.735737317413       2.312239170000      -0.376886691665
        42    1       50.729657034971      -0.000000000000      -0.407367702370
        43    1       60.059321772102       2.312239170000      -1.346328817509
        44    1       61.427139108328       0.000000000000       0.499890390935
        45    1       56.053578856640      -0.000000000000      -1.357725469912
        46    1       57.422610766242       2.312239170000       0.557200383957
        47    1       62.745998161966       2.312239170000      -0.423389080252
        48    1       58.740403408719      -0.000000000000      -0.426404412134
        49    1       68.069097311577       2.312239170000      -1.420284206899
        50    1       69.436893404331       0.000000000000       0.424733289297
        51    1       64.063746654820      -0.000000000000      -1.409491356142
        52    1       65.432603335383       2.312239170000       0.495522046427
        53    1       70.755598132514       2.312239170000      -0.507276147939
        54    1       66.750345797736      -0.000000000000      -0.490921366165
        55    1       76.078438006777       2.312239170000      -1.518838103074
        56    1       77.446252119629       0.000000000000       0.327198763859
        57    1       72.073344489532      -0.000000000000      -1.493499244952
        58    1       73.442060670483       2.312239170000       0.403566299372
        59    1       78.764842715628       2.312239170000      -0.611266964660
        60    1       74.759813357593      -0.000000000000      -0.582298713587
        61    1        3.981423002467       6.936717520000      -1.364345374695
        62    1        5.350115042498       4.624478350000       0.531354552991
        63    1       -0.022647452743       4.624478350000      -1.281133388543
        64    1        1.345122904638       6.936717520000       0.562428295107
        65    1        6.667797756945       6.936717520000      -0.458468711540
        66    1        2.663722849249       4.624478350000      -0.375508596037
        67    1       11.990577695241       6.936717520000      -1.473421156952
        68    1       13.359422589468       4.624478350000       0.430925509785
        69    1        7.986480123364       4.624478350000      -1.391743121140
        70    1        9.354198396325       6.936717520000       0.448872222839
        71    1       14.677051483819       6.936717520000      -0.561942279076
        72    1       10.672931279930       4.624478350000      -0.481544503238
        73    1       20.000119243854       6.936717520000      -1.560613068298
        74    1       21.369202181446       4.624478350000       0.357199364578
        75    1       15.995910525439       4.624478350000      -1.485222430156
        76    1       17.363577817779       6.936717520000       0.352509014397
        77    1       22.686805721672       6.936717520000      -0.637102670200
        78    1       18.682515692670       4.624478350000      -0.566311653423
        79    1       28.010540845408       6.936717520000      -1.598021667679
        80    1       29.379963682971       4.624478350000       0.339018411113
        81    1       24.005939759056       4.624478350000      -1.544826711732
        82    1       25.373615753991       6.936717520000       0.293397025906
        83    1       30.697748973747       6.936717520000      -0.645002260003
        84    1       26.692865882823       4.624478350000      -0.607759891660
        85    1       36.023068043916       6.936717520000      -1.516319716629
        86    1       37.392531314499       4.624478350000       0.423008164898
        87    1       32.017218224070       4.624478350000      -1.533763794196
        88    1       33.385257989647       6.936717520000       0.325037918385
        89    1       38.711253542432       6.936717520000      -0.508011337004
        90    1       34.704763127987       4.624478350000      -0.561693482991
        91    1       44.037707303700       6.936717520000      -1.315140972194
        92    1       45.406065846142       4.624478350000       0.561693482991
        93    1       40.030387668721       4.624478350000      -1.415730349322
        94    1       41.399575421699       6.936717520000       0.508011337180
        95    1       46.725570984483       6.936717520000      -0.325037918385
        96    1       42.718297649632       4.624478350000      -0.423008164721
        97    1       52.050234502032       6.936717520000      -1.233439031142
        98    1       53.417963091130       4.624478350000       0.607759881661
        99    1       48.043557123370       4.624478350000      -1.297696904625
       100    1       49.413080000383       6.936717520000       0.645002260003
       101    1       54.737213220139       6.936717520000      -0.293397025906
       102    1       50.730865290982       4.624478350000      -0.339018421111
       103    1       60.060656103586       6.936717520000      -1.270847630523
       104    1       61.428313281283       4.624478350000       0.566311643425
       105    1       56.054835588384       4.624478350000      -1.286633987089
       106    1       57.424023252457       6.936717520000       0.637102670200
       107    1       62.747251156174       6.936717520000      -0.352509024395
       108    1       58.741626792683       4.624478350000      -0.357199364578
       109    1       68.070197652199       6.936717520000      -1.358039541869
       110    1       69.437897694023       4.624478350000       0.481544493240
       111    1       64.064864822001       4.624478350000      -1.346238268665
       112    1       65.433777490133       6.936717520000       0.561942269078
       113    1       70.756630577804       6.936717520000      -0.448872222839
       114    1       66.751406384661       4.624478350000      -0.430925509785
       115    1       76.079352345150       6.936717520000      -1.467115314128
       116    1       77.447106124881       4.624478350000       0.375508596037
       117    1       72.074295224253       4.624478350000      -1.439717567683
       118    1       73.443031217185       6.936717520000       0.458468711540
       119    1       78.765706069315       6.936717520000      -0.562428305105
       120    1       74.760713931631       4.624478350000      -0.531354552991
       121    1        3.980446661223      11.561195870000      -1.419575575650
       122    1        5.349136209622       9.248956700000       0.475983404057
       123    1       -0.023512455675       9.248956700000      -1.330065343522
       124    1        1.344208471527      11.561195870000       0.510700146998
       125    1        6.666751057901      11.561195870000      -0.517678950663
       126    1        2.662804132094       9.248956700000      -0.427479086282
       127    1       11.989357768665      11.561195870000      -1.542430625065
       128    1       13.358214429786       9.248956700000       0.362581677675
       129    1        7.985433768981       9.248956700000      -1.450933863309
       130    1        9.353071199387      11.561195870000       0.385108335169
       131    1       14.675724031410      11.561195870000      -0.637034326860
       132    1       10.671808875720       9.248956700000      -0.545037273268
       133    1       19.998519843011      11.561195870000      -1.651088842563
       134    1       21.367671698958       9.248956700000       0.270622201203
       135    1       15.994605850860       9.248956700000      -1.559025969254
       136    1       17.362124994065      11.561195870000       0.270324894663
       137    1       22.685035604724      11.561195870000      -0.737235605651
       138    1       18.681103238269       9.248956700000      -0.646212139947
       139    1       28.008365545332      11.561195870000      -1.721075222063
       140    1       29.378115787237       9.248956700000       0.234485643082
       141    1       24.004285692550       9.248956700000      -1.638394842854
       142    1       25.371650592311      11.561195870000       0.182230694289
       143    1       30.695385574824      11.561195870000      -0.778696291942
       144    1       26.691095702775       9.248956700000      -0.707896396553
       145    1       36.021009751909      11.561195870000      -1.632754295147
       146    1       37.391573078371       9.248956700000       0.368802143927
       147    1       32.015396885946       9.248956700000      -1.636794236947
       148    1       33.382840903191      11.561195870000       0.188306860944
       149    1       38.710376084522      11.561195870000      -0.557647851904
       150    1       34.703191446526       9.248956700000      -0.650601212244
       151    1       44.039765595532      11.561195870000      -1.198706403674
       152    1       45.407637527427       9.248956700000       0.650601202245
       153    1       40.030387668721       9.248956700000      -1.415730349322
       154    1       41.400452879432      11.561195870000       0.557647842082
       155    1       46.727988070939      11.561195870000      -0.188306860944
       156    1       42.719255885584       9.248956700000      -0.368802153749
       157    1       52.052409802285      11.561195870000      -1.110385466760
       158    1       53.419733271354       9.248956700000       0.707896396553
       159    1       48.045378461494       9.248956700000      -1.194666461874
       160    1       49.415443399305      11.561195870000       0.778696291942
       161    1       54.739178381819      11.561195870000      -0.182230694289
       162    1       50.732713186716       9.248956700000      -0.234485653080
       163    1       60.062255504606      11.561195870000      -1.180371846260
       164    1       61.429725735684       9.248956700000       0.646212129949
       165    1       56.056489655067       9.248956700000      -1.193065845969
       166    1       57.425793369229      11.561195870000       0.737235595652
       167    1       62.748703980065      11.561195870000      -0.270324894663
       168    1       58.743157275171       9.248956700000      -0.270622201203
       169    1       68.071417578952      11.561195870000      -1.289030063757
       170    1       69.439020098233       9.248956700000       0.545037263270
       171    1       64.066169496757       9.248956700000      -1.272434719569
       172    1       65.435104942720      11.561195870000       0.637034326860
       173    1       70.757757774566      11.561195870000      -0.385108345167
       174    1       66.752614544167       9.248956700000      -0.362581687673
       175    1       76.080328686217      11.561195870000      -1.411885123171
       176    1       77.448024841859       9.248956700000       0.427479076284
       177    1       72.075341578459       9.248956700000      -1.380526835512
       178    1       73.444077916229      11.561195870000       0.517678950663
       179    1       78.766620502426      11.561195870000      -0.510700156997
       180    1       74.761692764330       9.248956700000      -0.475983414055
       181    1        3.979433342657      16.185674220000      -1.476897529794
       182    1        5.348101206242      13.873435050000       0.417434771566
       183    1       -0.024415019555      13.873435050000      -1.381122066532
       184    1        1.343263963676      16.185674220000       0.457270714695
       185    1        6.665658222929      16.185674220000      -0.579499032030
       186    1        2.661839770903      13.873435050000      -0.482031593119
       187    1       11.988062122960      16.185674220000      -1.615723413961
       188    1       13.356891414308      13.873435050000       0.287740620677
       189    1        7.984317303010      13.873435050000      -1.514090715821
       190    1        9.351885467042      16.185674220000       0.318033184842
       191    1       14.674296402394      16.185674220000      -0.717793219269
       192    1       10.670597545512      13.873435050000      -0.613560457357
       193    1       19.996729710644      16.185674220000      -1.752354021114
       194    1       21.365858038990      13.873435050000       0.168026100592
       195    1       15.993149739790      13.873435050000      -1.641396049934
       196    1       17.360536087521      16.185674220000       0.180442767648
       197    1       22.682988008333      16.185674220000      -0.853065148698
       198    1       18.679486398655      13.873435050000      -0.737674400086
       199    1       28.005513470196      16.185674220000      -1.882412955011
       200    1       29.375374354551      13.873435050000       0.079406792260
       201    1       24.002227840824      13.873435050000      -1.754804515263
       202    1       25.369263362663      16.185674220000       0.047188592969
       203    1       30.691869747502      16.185674220000      -0.977581518553
       204    1       26.688732456564      13.873435050000      -0.841581789842
       205    1       36.015096392235      16.185674220000      -1.967264432021
       206    1       37.388542707069      13.873435050000       0.197378456786
       207    1       32.012219973219      13.873435050000      -1.816507558933
       208    1       33.378340867523      16.185674220000      -0.066253597091
       209    1       38.703961048917      16.185674220000      -0.920537064893
       210    1       34.699675091784      13.873435050000      -0.849516274193
       211    1       44.045678955206      16.185674220000      -0.864196266800
       212    1       45.411153882169      13.873435050000       0.849516264195
       213    1       40.030387668721      13.873435050000      -1.415730349322
       214    1       41.406867915037      16.185674220000       0.920537055072
       215    1       46.732488106430      16.185674220000       0.066253587093
       216    1       42.722286256885      13.873435050000      -0.197378466608
       217    1       52.055261877421      16.185674220000      -0.949047733812
       218    1       53.422096517566      13.873435050000       0.841581789842
       219    1       48.048555374221      13.873435050000      -1.014953139888
       220    1       49.418959226451      16.185674220000       0.977581508554
       221    1       54.741565611290      16.185674220000      -0.047188602967
       222    1       50.735454619578      13.873435050000      -0.079406792260
       223    1       60.064045636973      16.185674220000      -1.079106667708
       224    1       61.431342575298      13.873435050000       0.737674390087
       225    1       56.058547506793      13.873435050000      -1.076656173559
       226    1       57.427840965619      16.185674220000       0.853065138700
       227    1       62.750292886431      16.185674220000      -0.180442777646
       228    1       58.744970935139      13.873435050000      -0.168026100592
       229    1       68.072713224480      16.185674220000      -1.215737284860
       230    1       69.440231428617      13.873435050000       0.613560457357
       231    1       64.067625607650      13.873435050000      -1.190064648887
       232    1       65.436532571559      16.185674220000       0.717793209270
       233    1       70.758943507087      16.185674220000      -0.318033184842
       234    1       66.753937559821      13.873435050000      -0.287740620677
       235    1       76.081342004960      16.185674220000      -1.354563159029
       236    1       77.448989203050      13.873435050000       0.482031583120
       237    1       72.076458044607      13.873435050000      -1.317369973001
       238    1       73.445170751024      16.185674220000       0.579499022031
       239    1       78.767565010277      16.185674220000      -0.457270724694
       240    1       74.762727767887      13.873435050000      -0.417434771566
       241    1        4.028468146992      20.810152570000       1.296929873526
       242    1        5.397095530442      18.497913400000       3.188972272656
       243    1        0.024720097306      18.497913400000       1.398379870211
       244    1        1.392368630736      20.810152570000       3.235050150558
       245    1        6.714612101459      20.810152570000       2.189750516524
       246    1        2.710909494139      18.497913400000       2.293771121583
       247    1       12.036808535716      20.810152570000       1.141790098205
       248    1       13.405569802530      18.497913400000       3.041406084054
       249    1        8.033223741910      18.497913400000       1.252475242011
       250    1        9.400744514918      20.810152570000       3.081918301523
       251    1       14.722906876548      20.810152570000       2.032030444343
       252    1       10.719400239949      18.497913400000       2.147136827384
       253    1       20.044962288724      20.810152570000       0.976092612397
       254    1       21.413953723670      18.497913400000       2.888728873987
       255    1       16.041676502398      18.497913400000       1.103692173532
       256    1       17.408979316747      20.810152570000       2.920805629394
       257    1       22.730947367507      20.810152570000       1.859925889562
       258    1       18.727824149154      18.497913400000       1.996721683897
       259    1       28.052584230965      20.810152570000       0.780311366810
       260    1       29.422047178728      18.497913400000       2.719620421101
       261    1       24.050002653808      18.497913400000       0.947747014042
       262    1       25.416854788754      20.810152570000       2.739366193074
       263    1       30.738151991029      20.810152570000       1.640537532297
       264    1       26.736062208291      18.497913400000       1.835793272980
       265    1       36.057533048916      20.810152570000       0.433315376681
       266    1       37.427596339325      18.497913400000       2.406585505146
       267    1       32.057831904693      18.497913400000       0.763692916231
       268    1       33.423307896216      20.810152570000       2.477465667818
       269    1       38.739991407761      20.810152570000       1.117647813594
       270    1       34.743318461280      18.497913400000       1.619325519407
       271    1       44.053295925214      20.810152570000      -0.433315376681
       272    1       45.417564139185      18.497913400000       1.212135159418
       273    1       40.055414482066      18.497913400000       0.000000000088
       274    1       41.420891182706      20.810152570000       1.713812865407
       275    1       46.737574704426      20.810152570000       0.353995021005
       276    1       42.733286251142      18.497913400000       0.424875173855
       277    1       52.058244742987      20.810152570000      -0.780311376808
       278    1       53.424820392174      18.497913400000       0.995667405845
       279    1       48.052997069259      18.497913400000      -0.763692926230
       280    1       49.422730609614      20.810152570000       1.190923156525
       281    1       54.744027811888      20.810152570000       0.092094495748
       282    1       50.738835421914      18.497913400000       0.111840267721
       283    1       60.065866685406      20.810152570000      -0.976092612397
       284    1       61.433058451311      18.497913400000       0.834738994927
       285    1       56.060826320145      18.497913400000      -0.947747024041
       286    1       57.429935233135      20.810152570000       0.971534799261
       287    1       62.751903283896      20.810152570000      -0.089344940572
       288    1       58.746928876796      18.497913400000      -0.057268195163
       289    1       68.074020438413      20.810152570000      -1.141790098205
       290    1       69.441482360693      18.497913400000       0.684323861438
       291    1       64.069152471731      18.497913400000      -1.103692173532
       292    1       65.437975724094      20.810152570000       0.799430244480
       293    1       70.760138085724      20.810152570000      -0.250457612701
       294    1       66.755312798112      18.497913400000      -0.209945395231
       295    1       76.082360827138      20.810152570000      -1.296929873526
       296    1       77.449973106327      18.497913400000       0.537689557241
       297    1       72.077605232219      18.497913400000      -1.252475242011
       298    1       73.446270499183      20.810152570000       0.641710172298
       299    1       78.768513969730      20.810152570000      -0.403589471734
       300    1       74.763787070024      18.497913400000      -0.357511593831
       301    1        4.027476313867      25.434630920000       1.240823319491
       302    1        5.396048532339      23.122391740000       3.129745116176
       303    1        0.023809639459      23.122391740000       1.346876596969
       304    1        1.391441562894      25.434630920000       3.182607274118
       305    1        6.713546139594      25.434630920000       2.129450607649
       306    1        2.709935471136      23.122391740000       2.238672060139
       307    1       12.035557304581      25.434630920000       1.071009776767
       308    1       13.404221207395      23.122391740000       2.965118023133
       309    1        8.032092140562      23.122391740000       1.188462203267
       310    1        9.399592983520      25.434630920000       3.016777848924
       311    1       14.721538306823      25.434630920000       1.954612449960
       312    1       10.718169448430      23.122391740000       2.077512745297
       313    1       20.043286393529      25.434630920000       0.881289664201
       314    1       21.412070717437      23.122391740000       2.782209956268
       315    1       16.040185886549      23.122391740000       1.019370207810
       316    1       17.407471177994      25.434630920000       2.835492418543
       317    1       22.729068084317      25.434630920000       1.753617578938
       318    1       18.726159300777      23.122391740000       1.902543638067
       319    1       28.050161682609      25.434630920000       0.643271337642
       320    1       29.419018201447      23.122391740000       2.548275591640
       321    1       24.047839943922      23.122391740000       0.825405668385
       322    1       25.414728281145      25.434630920000       2.619072757456
       323    1       30.735398607278      25.434630920000       1.484782627100
       324    1       26.733531212709      23.122391740000       1.692618542284
       325    1       36.054639507562      25.434630920000       0.269631960217
       326    1       37.422511570859      23.122391740000       2.118947565064
       327    1       32.054120605260      23.122391740000       0.553750117231
       328    1       33.420279248396      25.434630920000       2.306139475444
       329    1       38.738579625714      25.434630920000       1.037785361127
       330    1       34.738730497540      23.122391740000       1.359791098493
       331    1       44.056189466567      25.434630920000      -0.269631960217
       332    1       45.422152103102      23.122391740000       1.471669590330
       333    1       40.055414482066      23.122391740000       0.000000000088
       334    1       41.422302964930      25.434630920000       1.793675327872
       335    1       46.740603352247      25.434630920000       0.525321213378
       336    1       42.738371019608      23.122391740000       0.712513113937
       337    1       52.060667291520      25.434630920000      -0.643271337642
       338    1       53.427351387757      23.122391740000       1.138842136540
       339    1       48.056708368693      23.122391740000      -0.553750127230
       340    1       49.425483993365      25.434630920000       1.346678061722
       341    1       54.746154319497      25.434630920000       0.212387931367
       342    1       50.741864399019      23.122391740000       0.283185087184
       343    1       60.067542580600      25.434630920000      -0.881289664201
       344    1       61.434723299865      23.122391740000       0.928917050755
       345    1       56.062989030207      23.122391740000      -0.825405668385
       346    1       57.431814516325      25.434630920000       1.077843109885
       347    1       62.753411422472      25.434630920000      -0.004031739718
       348    1       58.748811883028      23.122391740000       0.049250722556
       349    1       68.075271669549      25.434630920000      -1.071009776767
       350    1       69.442713152212      23.122391740000       0.753947943525
       351    1       64.070643087580      23.122391740000      -1.019370207810
       352    1       65.439344293819      25.434630920000       0.876848238863
       353    1       70.761289617122      25.434630920000      -0.185317160101
       354    1       66.756661393070      23.122391740000      -0.133657344308
       355    1       76.083352660085      25.434630920000      -1.240823329489
       356    1       77.450947129329      23.122391740000       0.592788618685
       357    1       72.078736833567      23.122391740000      -1.188462203267
       358    1       73.447336460872      25.434630920000       0.702010071175
       359    1       78.769441037748      25.434630920000      -0.351146585295
       360    1       74.764834068127      23.122391740000      -0.298284437352
       361    1        4.026539113884      30.059109270000       1.187807282599
       362    1        5.395048007225      27.746870090000       3.073146868961
       363    1        0.022930013545      27.746870090000       1.297117441230
       364    1        1.390559279027      30.059109270000       3.132697761870
       365    1        6.712547688100      30.059109270000       2.072969662108
       366    1        2.708999048495      27.746870090000       2.185699996377
       367    1       12.034413899045      30.059109270000       1.006328992350
       368    1       13.402969629124      27.746870090000       2.894318064762
       369    1        8.031018858634      27.746870090000       1.127748209088
       370    1        9.398526084531      30.059109270000       2.956424928331