 # Bcc Mo oriented X=[11-2] Y=[-110] Z=[111].
 
         960  atoms
           3  atom types
 
      0.000000000000      80.098314589010  xlo xhi
      0.000000000000      36.995826791680  ylo yhi
      0.000000000000       5.663806140750  zlo zhi

Atoms # atomic
 
1 1 4.004915729450 2.312239174480 0.000000000000
2 1 5.339887639267 0.000000000000 1.887935380250
3 2 0.000000000000 0.000000000000 0.000000000000
4 1 1.334971909817 2.312239174480 1.887935380250
5 2 6.674859549084 2.312239174480 0.943967690125
6 1 2.669943819634 0.000000000000 0.943967690125
7 1 12.014747188351 2.312239174480 0.000000000000
8 1 13.349719098168 0.000000000000 1.887935380250
9 1 8.009831458901 0.000000000000 0.000000000000
10 1 9.344803368718 2.312239174480 1.887935380250
11 3 14.684691007985 2.312239174480 0.943967690125
12 1 10.679775278535 0.000000000000 0.943967690125
13 1 20.024578647252 2.312239174480 0.000000000000
14 2 21.359550557069 0.000000000000 1.887935380250
15 2 16.019662917802 0.000000000000 0.000000000000
16 2 17.354634827619 2.312239174480 1.887935380250
17 1 22.694522466886 2.312239174480 0.943967690125
18 1 18.689606737436 0.000000000000 0.943967690125
19 2 28.034410106153 2.312239174480 0.000000000000
20 1 29.369382015970 0.000000000000 1.887935380250
21 2 24.029494376703 0.000000000000 0.000000000000
22 2 25.364466286520 2.312239174480 1.887935380250
23 1 30.704353925787 2.312239174480 0.943967690125
24 1 26.699438196337 0.000000000000 0.943967690125
25 1 36.044241565054 2.312239174480 0.000000000000
26 1 37.379213474871 0.000000000000 1.887935380250
27 2 32.039325835604 0.000000000000 0.000000000000
28 2 33.374297745421 2.312239174480 1.887935380250
29 2 38.714185384688 2.312239174480 0.943967690125
30 1 34.709269655238 0.000000000000 0.943967690125
31 1 44.054073023955 2.312239174480 0.000000000000
32 1 45.389044933772 0.000000000000 1.887935380250
33 2 40.049157294505 0.000000000000 0.000000000000
34 2 41.384129204322 2.312239174480 1.887935380250
35 2 46.724016843589 2.312239174480 0.943967690125
36 1 42.719101114139 0.000000000000 0.943967690125
37 3 52.063904482856 2.312239174480 0.000000000000
38 2 53.398876392673 0.000000000000 1.887935380250
39 1 48.058988753406 0.000000000000 0.000000000000
40 2 49.393960663223 2.312239174480 1.887935380250
41 1 54.733848302490 2.312239174480 0.943967690125
42 2 50.728932573040 0.000000000000 0.943967690125
43 1 60.073735941757 2.312239174480 0.000000000000
44 1 61.408707851574 0.000000000000 1.887935380250
45 1 56.068820212307 0.000000000000 0.000000000000
46 1 57.403792122124 2.312239174480 1.887935380250
47 1 62.743679761391 2.312239174480 0.943967690125
48 1 58.738764031941 0.000000000000 0.943967690125
49 1 68.083567400658 2.312239174480 0.000000000000
50 1 69.418539310475 0.000000000000 1.887935380250
51 1 64.078651671208 0.000000000000 0.000000000000
52 1 65.413623581025 2.312239174480 1.887935380250
53 2 70.753511220292 2.312239174480 0.943967690125
54 2 66.748595490842 0.000000000000 0.943967690125
55 2 76.093398859559 2.312239174480 0.000000000000
56 1 77.428370769376 0.000000000000 1.887935380250
57 1 72.088483130109 0.000000000000 0.000000000000
58 2 73.423455039926 2.312239174480 1.887935380250
59 2 78.763342679193 2.312239174480 0.943967690125
60 2 74.758426949743 0.000000000000 0.943967690125
61 1 4.004915729450 6.936717523440 0.000000000000
62 1 5.339887639267 4.624478348960 1.887935380250
63 2 0.000000000000 4.624478348960 0.000000000000
64 1 1.334971909817 6.936717523440 1.887935380250
65 1 6.674859549084 6.936717523440 0.943967690125
66 3 2.669943819634 4.624478348960 0.943967690125
67 2 12.014747188351 6.936717523440 0.000000000000
68 2 13.349719098168 4.624478348960 1.887935380250
69 2 8.009831458901 4.624478348960 0.000000000000
70 1 9.344803368718 6.936717523440 1.887935380250
71 1 14.684691007985 6.936717523440 0.943967690125
72 2 10.679775278535 4.624478348960 0.943967690125
73 1 20.024578647252 6.936717523440 0.000000000000
74 1 21.359550557069 4.624478348960 1.887935380250
75 2 16.019662917802 4.624478348960 0.000000000000
76 1 17.354634827619 6.936717523440 1.887935380250
77 3 22.694522466886 6.936717523440 0.943967690125
78 2 18.689606737436 4.624478348960 0.943967690125
79 3 28.034410106153 6.936717523440 0.000000000000
80 2 29.369382015970 4.624478348960 1.887935380250
81 1 24.029494376703 4.624478348960 0.000000000000
82 3 25.364466286520 6.936717523440 1.887935380250
83 2 30.704353925787 6.936717523440 0.943967690125
84 1 26.699438196337 4.624478348960 0.943967690125
85 1 36.044241565054 6.936717523440 0.000000000000
86 1 37.379213474871 4.624478348960 1.887935380250
87 1 32.039325835604 4.624478348960 0.000000000000
88 1 33.374297745421 6.936717523440 1.887935380250
89 1 38.714185384688 6.936717523440 0.943967690125
90 1 34.709269655238 4.624478348960 0.943967690125
91 1 44.054073023955 6.936717523440 0.000000000000
92 1 45.389044933772 4.624478348960 1.887935380250
93 2 40.049157294505 4.624478348960 0.000000000000
94 1 41.384129204322 6.936717523440 1.887935380250
95 1 46.724016843589 6.936717523440 0.943967690125
96 2 42.719101114139 4.624478348960 0.943967690125
97 1 52.063904482856 6.936717523440 0.000000000000
98 3 53.398876392673 4.624478348960 1.887935380250
99 1 48.058988753406 4.624478348960 0.000000000000
100 2 49.393960663223 6.936717523440 1.887935380250
101 1 54.733848302490 6.936717523440 0.943967690125
102 1 50.728932573040 4.624478348960 0.943967690125
103 1 60.073735941757 6.936717523440 0.000000000000
104 1 61.408707851574 4.624478348960 1.887935380250
105 1 56.068820212307 4.624478348960 0.000000000000
106 1 57.403792122124 6.936717523440 1.887935380250
107 1 62.743679761391 6.936717523440 0.943967690125
108 1 58.738764031941 4.624478348960 0.943967690125
109 3 68.083567400658 6.936717523440 0.000000000000
110 2 69.418539310475 4.624478348960 1.887935380250
111 3 64.078651671208 4.624478348960 0.000000000000
112 1 65.413623581025 6.936717523440 1.887935380250
113 1 70.753511220292 6.936717523440 0.943967690125
114 2 66.748595490842 4.624478348960 0.943967690125
115 1 76.093398859559 6.936717523440 0.000000000000
116 1 77.428370769376 4.624478348960 1.887935380250
117 1 72.088483130109 4.624478348960 0.000000000000
118 1 73.423455039926 6.936717523440 1.887935380250
119 2 78.763342679193 6.936717523440 0.943967690125
120 2 74.758426949743 4.624478348960 0.943967690125
121 1 4.004915729450 11.561195872400 0.000000000000
122 2 5.339887639267 9.248956697920 1.887935380250
123 1 0.000000000000 9.248956697920 0.000000000000
124 2 1.334971909817 11.561195872400 1.887935380250
125 2 6.674859549084 11.561195872400 0.943967690125
126 2 2.669943819634 9.248956697920 0.943967690125
127 1 12.014747188351 11.561195872400 0.000000000000
128 1 13.349719098168 9.248956697920 1.887935380250
129 1 8.009831458901 9.248956697920 0.000000000000
130 1 9.344803368718 11.561195872400 1.887935380250
131 2 14.684691007985 11.561195872400 0.943967690125
132 1 10.679775278535 9.248956697920 0.943967690125
133 2 20.024578647252 11.561195872400 0.000000000000
134 1 21.359550557069 9.248956697920 1.887935380250
135 1 16.019662917802 9.248956697920 0.000000000000
136 2 17.354634827619 11.561195872400 1.887935380250
137 1 22.694522466886 11.561195872400 0.943967690125
138 1 18.689606737436 9.248956697920 0.943967690125
139 1 28.034410106153 11.561195872400 0.000000000000
140 1 29.369382015970 9.248956697920 1.887935380250
141 3 24.029494376703 9.248956697920 0.000000000000
142 2 25.364466286520 11.561195872400 1.887935380250
143 3 30.704353925787 11.561195872400 0.943967690125
144 1 26.699438196337 9.248956697920 0.943967690125
145 1 36.044241565054 11.561195872400 0.000000000000
146 1 37.379213474871 9.248956697920 1.887935380250
147 3 32.039325835604 9.248956697920 0.000000000000
148 3 33.374297745421 11.561195872400 1.887935380250
149 1 38.714185384688 11.561195872400 0.943967690125
150 2 34.709269655238 9.248956697920 0.943967690125
151 1 44.054073023955 11.561195872400 0.000000000000
152 1 45.389044933772 9.248956697920 1.887935380250
153 2 40.049157294505 9.248956697920 0.000000000000
154 3 41.384129204322 11.561195872400 1.887935380250
155 1 46.724016843589 11.561195872400 0.943967690125
156 1 42.719101114139 9.248956697920 0.943967690125
157 1 52.063904482856 11.561195872400 0.000000000000
158 1 53.398876392673 9.248956697920 1.887935380250
159 3 48.058988753406 9.248956697920 0.000000000000
160 2 49.393960663223 11.561195872400 1.887935380250
161 1 54.733848302490 11.561195872400 0.943967690125
162 1 50.728932573040 9.248956697920 0.943967690125
163 2 60.073735941757 11.561195872400 0.000000000000
164 1 61.408707851574 9.248956697920 1.887935380250
165 3 56.068820212307 9.248956697920 0.000000000000
166 1 57.403792122124 11.561195872400 1.887935380250
167 2 62.743679761391 11.561195872400 0.943967690125
168 1 58.738764031941 9.248956697920 0.943967690125
169 1 68.083567400658 11.561195872400 0.000000000000
170 1 69.418539310475 9.248956697920 1.887935380250
171 1 64.078651671208 9.248956697920 0.000000000000
172 1 65.413623581025 11.561195872400 1.887935380250
173 1 70.753511220292 11.561195872400 0.943967690125
174 2 66.748595490842 9.248956697920 0.943967690125
175 1 76.093398859559 11.561195872400 0.000000000000
176 1 77.428370769376 9.248956697920 1.887935380250
177 1 72.088483130109 9.248956697920 0.000000000000
178 1 73.423455039926 11.561195872400 1.887935380250
179 1 78.763342679193 11.561195872400 0.943967690125
180 1 74.758426949743 9.248956697920 0.943967690125
181 1 4.004915729450 16.185674221360 0.000000000000
182 3 5.339887639267 13.873435046880 1.887935380250
183 2 0.000000000000 13.873435046880 0.000000000000
184 1 1.334971909817 16.185674221360 1.887935380250
185 1 6.674859549084 16.185674221360 0.943967690125
186 1 2.669943819634 13.873435046880 0.943967690125
187 1 12.014747188351 16.185674221360 0.000000000000
188 2 13.349719098168 13.873435046880 1.887935380250
189 2 8.009831458901 13.873435046880 0.000000000000
190 1 9.344803368718 16.185674221360 1.887935380250
191 2 14.684691007985 16.185674221360 0.943967690125
192 1 10.679775278535 13.873435046880 0.943967690125
193 2 20.024578647252 16.185674221360 0.000000000000
194 1 21.359550557069 13.873435046880 1.887935380250
195 2 16.019662917802 13.873435046880 0.000000000000
196 1 17.354634827619 16.185674221360 1.887935380250
197 1 22.694522466886 16.185674221360 0.943967690125
198 2 18.689606737436 13.873435046880 0.943967690125
199 3 28.034410106153 16.185674221360 0.000000000000
200 1 29.369382015970 13.873435046880 1.887935380250
201 1 24.029494376703 13.873435046880 0.000000000000
202 1 25.364466286520 16.185674221360 1.887935380250
203 1 30.704353925787 16.185674221360 0.943967690125
204 2 26.699438196337 13.873435046880 0.943967690125
205 1 36.044241565054 16.185674221360 0.000000000000
206 2 37.379213474871 13.873435046880 1.887935380250
207 1 32.039325835604 13.873435046880 0.000000000000
208 1 33.374297745421 16.185674221360 1.887935380250
209 1 38.714185384688 16.185674221360 0.943967690125
210 1 34.709269655238 13.873435046880 0.943967690125
211 2 44.054073023955 16.185674221360 0.000000000000
212 2 45.389044933772 13.873435046880 1.887935380250
213 2 40.049157294505 13.873435046880 0.000000000000
214 1 41.384129204322 16.185674221360 1.887935380250
215 2 46.724016843589 16.185674221360 0.943967690125
216 3 42.719101114139 13.873435046880 0.943967690125
217 1 52.063904482856 16.185674221360 0.000000000000
218 1 53.398876392673 13.873435046880 1.887935380250
219 2 48.058988753406 13.873435046880 0.000000000000
220 2 49.393960663223 16.185674221360 1.887935380250
221 1 54.733848302490 16.185674221360 0.943967690125
222 1 50.728932573040 13.873435046880 0.943967690125
223 1 60.073735941757 16.185674221360 0.000000000000
224 1 61.408707851574 13.873435046880 1.887935380250
225 2 56.068820212307 13.873435046880 0.000000000000
226 1 57.403792122124 16.185674221360 1.887935380250
227 1 62.743679761391 16.185674221360 0.943967690125
228 3 58.738764031941 13.873435046880 0.943967690125
229 3 68.083567400658 16.185674221360 0.000000000000
230 1 69.418539310475 13.873435046880 1.887935380250
231 2 64.078651671208 13.873435046880 0.000000000000
232 1 65.413623581025 16.185674221360 1.887935380250
233 1 70.753511220292 16.185674221360 0.943967690125
234 1 66.748595490842 13.873435046880 0.943967690125
235 1 76.093398859559 16.185674221360 0.000000000000
236 3 77.428370769376 13.873435046880 1.887935380250
237 1 72.088483130109 13.873435046880 0.000000000000
238 1 73.423455039926 16.185674221360 1.887935380250
239 2 78.763342679193 16.185674221360 0.943967690125
240 2 74.758426949743 13.873435046880 0.943967690125
241 2 4.004915729450 20.810152570320 0.000000000000
242 1 5.339887639267 18.497913395840 1.887935380250
243 2 0.000000000000 18.497913395840 0.000000000000
244 1 1.334971909817 20.810152570320 1.887935380250
245 1 6.674859549084 20.810152570320 0.943967690125
246 2 2.669943819634 18.497913395840 0.943967690125
247 1 12.014747188351 20.810152570320 0.000000000000
248 1 13.349719098168 18.497913395840 1.887935380250
249 3 8.009831458901 18.497913395840 0.000000000000
250 1 9.344803368718 20.810152570320 1.887935380250
251 1 14.684691007985 20.810152570320 0.943967690125
252 1 10.679775278535 18.497913395840 0.943967690125
253 1 20.024578647252 20.810152570320 0.000000000000
254 2 21.359550557069 18.497913395840 1.887935380250
255 1 16.019662917802 18.497913395840 0.000000000000
256 1 17.354634827619 20.810152570320 1.887935380250
257 1 22.694522466886 20.810152570320 0.943967690125
258 3 18.689606737436 18.497913395840 0.943967690125
259 2 28.034410106153 20.810152570320 0.000000000000
260 3 29.369382015970 18.497913395840 1.887935380250
261 1 24.029494376703 18.497913395840 0.000000000000
262 1 25.364466286520 20.810152570320 1.887935380250
263 1 30.704353925787 20.810152570320 0.943967690125
264 2 26.699438196337 18.497913395840 0.943967690125
265 2 36.044241565054 20.810152570320 0.000000000000
266 2 37.379213474871 18.497913395840 1.887935380250
267 1 32.039325835604 18.497913395840 0.000000000000
268 1 33.374297745421 20.810152570320 1.887935380250
269 2 38.714185384688 20.810152570320 0.943967690125
270 1 34.709269655238 18.497913395840 0.943967690125
271 1 44.054073023955 20.810152570320 0.000000000000
272 2 45.389044933772 18.497913395840 1.887935380250
273 2 40.049157294505 18.497913395840 0.000000000000
274 1 41.384129204322 20.810152570320 1.887935380250
275 2 46.724016843589 20.810152570320 0.943967690125
276 1 42.719101114139 18.497913395840 0.943967690125
277 1 52.063904482856 20.810152570320 0.000000000000
278 1 53.398876392673 18.497913395840 1.887935380250
279 1 48.058988753406 18.497913395840 0.000000000000
280 1 49.393960663223 20.810152570320 1.887935380250
281 1 54.733848302490 20.810152570320 0.943967690125
282 1 50.728932573040 18.497913395840 0.943967690125
283 2 60.073735941757 20.810152570320 0.000000000000
284 3 61.408707851574 18.497913395840 1.887935380250
285 2 56.068820212307 18.497913395840 0.000000000000
286 3 57.403792122124 20.810152570320 1.887935380250
287 3 62.743679761391 20.810152570320 0.943967690125
288 1 58.738764031941 18.497913395840 0.943967690125
289 1 68.083567400658 20.810152570320 0.000000000000
290 1 69.418539310475 18.497913395840 1.887935380250
291 1 64.078651671208 18.497913395840 0.000000000000
292 2 65.413623581025 20.810152570320 1.887935380250
293 1 70.753511220292 20.810152570320 0.943967690125
294 2 66.748595490842 18.497913395840 0.943967690125
295 1 76.093398859559 20.810152570320 0.000000000000
296 3 77.428370769376 18.497913395840 1.887935380250
297 1 72.088483130109 18.497913395840 0.000000000000
298 2 73.423455039926 20.810152570320 1.887935380250
299 2 78.763342679193 20.810152570320 0.943967690125
300 3 74.758426949743 18.497913395840 0.943967690125
301 2 4.004915729450 25.434630919280 0.000000000000
302 1 5.339887639267 23.122391744800 1.887935380250
303 1 0.000000000000 23.122391744800 0.000000000000
304 2 1.334971909817 25.434630919280 1.887935380250
305 2 6.674859549084 25.434630919280 0.943967690125
306 1 2.669943819634 23.122391744800 0.943967690125
307 1 12.014747188351 25.434630919280 0.000000000000
308 1 13.349719098168 23.122391744800 1.887935380250
309 1 8.009831458901 23.122391744800 0.000000000000
310 2 9.344803368718 25.434630919280 1.887935380250
311 1 14.684691007985 25.434630919280 0.943967690125
312 2 10.679775278535 23.122391744800 0.943967690125
313 2 20.024578647252 25.434630919280 0.000000000000
314 1 21.359550557069 23.122391744800 1.887935380250
315 1 16.019662917802 23.122391744800 0.000000000000
316 2 17.354634827619 25.434630919280 1.887935380250
317 1 22.694522466886 25.434630919280 0.943967690125
318 1 18.689606737436 23.122391744800 0.943967690125
319 1 28.034410106153 25.434630919280 0.000000000000
320 1 29.369382015970 23.122391744800 1.887935380250
321 1 24.029494376703 23.122391744800 0.000000000000
322 3 25.364466286520 25.434630919280 1.887935380250
323 2 30.704353925787 25.434630919280 0.943967690125
324 1 26.699438196337 23.122391744800 0.943967690125
325 3 36.044241565054 25.434630919280 0.000000000000
326 1 37.379213474871 23.122391744800 1.887935380250
327 1 32.039325835604 23.122391744800 0.000000000000
328 2 33.374297745421 25.434630919280 1.887935380250
329 1 38.714185384688 25.434630919280 0.943967690125
330 1 34.709269655238 23.122391744800 0.943967690125
331 2 44.054073023955 25.434630919280 0.000000000000
332 1 45.389044933772 23.122391744800 1.887935380250
333 2 40.049157294505 23.122391744800 0.000000000000
334 2 41.384129204322 25.434630919280 1.887935380250
335 1 46.724016843589 25.434630919280 0.943967690125
336 1 42.719101114139 23.122391744800 0.943967690125
337 1 52.063904482856 25.434630919280 0.000000000000
338 1 53.398876392673 23.122391744800 1.887935380250
339 1 48.058988753406 23.122391744800 0.000000000000
340 1 49.393960663223 25.434630919280 1.887935380250
341 1 54.733848302490 25.434630919280 0.943967690125
342 1 50.728932573040 23.122391744800 0.943967690125
343 1 60.073735941757 25.434630919280 0.000000000000
344 1 61.408707851574 23.122391744800 1.887935380250
345 3 56.068820212307 23.122391744800 0.000000000000
346 2 57.403792122124 25.434630919280 1.887935380250
347 1 62.743679761391 25.434630919280 0.943967690125
348 3 58.738764031941 23.122391744800 0.943967690125
349 2 68.083567400658 25.434630919280 0.000000000000
350 1 69.418539310475 23.122391744800 1.887935380250
351 1 64.078651671208 23.122391744800 0.000000000000
352 1 65.413623581025 25.434630919280 1.887935380250
353 1 70.753511220292 25.434630919280 0.943967690125
354 1 66.748595490842 23.122391744800 0.943967690125
355 2 76.093398859559 25.434630919280 0.000000000000
356 2 77.428370769376 23.122391744800 1.887935380250
357 1 72.088483130109 23.122391744800 0.000000000000
358 1 73.423455039926 25.434630919280 1.887935380250
359 1 78.763342679193 25.434630919280 0.943967690125
360 3 74.758426949743 23.122391744800 0.943967690125
361 1 4.004915729450 30.059109268240 0.000000000000
362 3 5.339887639267 27.746870093760 1.887935380250
363 1 0.000000000000 27.746870093760 0.000000000000
364 3 1.334971909817 30.059109268240 1.887935380250
365 1 6.674859549084 30.059109268240 0.943967690125
366 3 2.669943819634 27.746870093760 0.943967690125
367 1 12.014747188351 30.059109268240 0.000000000000
368 1 13.349719098168 27.746870093760 1.887935380250
369 1 8.009831458901 27.746870093760 0.000000000000
370 2 9.344803368718 30.059109268240 1.887935380250
371 2 14.684691007985 30.059109268240 0.943967690125
372 1 10.679775278535 27.746870093760 0.943967690125
373 2 20.024578647252 30.059109268240 0.000000000000
374 1 21.359550557069 27.746870093760 1.887935380250
375 2 16.019662917802 27.746870093760 0.000000000000
376 2 17.354634827619 30.059109268240 1.887935380250
377 1 22.694522466886 30.059109268240 0.943967690125
378 1 18.689606737436 27.746870093760 0.943967690125
379 1 28.034410106153 30.059109268240 0.000000000000
380 1 29.369382015970 27.746870093760 1.887935380250
381 1 24.029494376703 27.746870093760 0.000000000000
382 1 25.364466286520 30.059109268240 1.887935380250
383 1 30.704353925787 30.059109268240 0.943967690125
384 1 26.699438196337 27.746870093760 0.943967690125
385 2 36.044241565054 30.059109268240 0.000000000000
386 1 37.379213474871 27.746870093760 1.887935380250
387 2 32.039325835604 27.746870093760 0.000000000000
388 1 33.374297745421 30.059109268240 1.887935380250
389 1 38.714185384688 30.059109268240 0.943967690125
390 1 34.709269655238 27.746870093760 0.943967690125
391 1 44.054073023955 30.059109268240 0.000000000000
392 2 45.389044933772 27.746870093760 1.887935380250
393 3 40.049157294505 27.746870093760 0.000000000000
394 1 41.384129204322 30.059109268240 1.887935380250
395 1 46.724016843589 30.059109268240 0.943967690125
396 1 42.719101114139 27.746870093760 0.943967690125
397 2 52.063904482856 30.059109268240 0.000000000000
398 1 53.398876392673 27.746870093760 1.887935380250
399 1 48.058988753406 27.746870093760 0.000000000000
400 1 49.393960663223 30.059109268240 1.887935380250
401 1 54.733848302490 30.059109268240 0.943967690125
402 1 50.728932573040 27.746870093760 0.943967690125
403 1 60.073735941757 30.059109268240 0.000000000000
404 1 61.408707851574 27.746870093760 1.887935380250
405 1 56.068820212307 27.746870093760 0.000000000000
406 2 57.403792122124 30.059109268240 1.887935380250
407 3 62.743679761391 30.059109268240 0.943967690125
408 1 58.738764031941 27.746870093760 0.943967690125
409 1 68.083567400658 30.059109268240 0.000000000000
410 1 69.418539310475 27.746870093760 1.887935380250
411 1 64.078651671208 27.746870093760 0.000000000000
412 2 65.413623581025 30.059109268240 1.887935380250
413 1 70.753511220292 30.059109268240 0.943967690125
414 1 66.748595490842 27.746870093760 0.943967690125
415 1 76.093398859559 30.059109268240 0.000000000000
416 1 77.428370769376 27.746870093760 1.887935380250
417 1 72.088483130109 27.746870093760 0.000000000000
418 1 73.423455039926 30.059109268240 1.887935380250
419 1 78.763342679193 30.059109268240 0.943967690125
420 2 74.758426949743 27.746870093760 0.943967690125
421 2 4.004915729450 34.683587617200 0.000000000000
422 1 5.339887639267 32.371348442720 1.887935380250
423 2 0.000000000000 32.371348442720 0.000000000000
424 1 1.334971909817 34.683587617200 1.887935380250
425 2 6.674859549084 34.683587617200 0.943967690125
426 1 2.669943819634 32.371348442720 0.943967690125
427 1 12.014747188351 34.683587617200 0.000000000000
428 1 13.349719098168 32.371348442720 1.887935380250
429 1 8.009831458901 32.371348442720 0.000000000000
430 1 9.344803368718 34.683587617200 1.887935380250
431 2 14.684691007985 34.683587617200 0.943967690125
432 3 10.679775278535 32.371348442720 0.943967690125
433 1 20.024578647252 34.683587617200 0.000000000000
434 1 21.359550557069 32.371348442720 1.887935380250
435 1 16.019662917802 32.371348442720 0.000000000000
436 2 17.354634827619 34.683587617200 1.887935380250
437 2 22.694522466886 34.683587617200 0.943967690125
438 1 18.689606737436 32.371348442720 0.943967690125
439 1 28.034410106153 34.683587617200 0.000000000000
440 1 29.369382015970 32.371348442720 1.887935380250
441 2 24.029494376703 32.371348442720 0.000000000000
442 3 25.364466286520 34.683587617200 1.887935380250
443 1 30.704353925787 34.683587617200 0.943967690125
444 1 26.699438196337 32.371348442720 0.943967690125
445 2 36.044241565054 34.683587617200 0.000000000000
446 1 37.379213474871 32.371348442720 1.887935380250
447 3 32.039325835604 32.371348442720 0.000000000000
448 2 33.374297745421 34.683587617200 1.887935380250
449 3 38.714185384688 34.683587617200 0.943967690125
450 1 34.709269655238 32.371348442720 0.943967690125
451 2 44.054073023955 34.683587617200 0.000000000000
452 2 45.389044933772 32.371348442720 1.887935380250
453 1 40.049157294505 32.371348442720 0.000000000000
454 2 41.384129204322 34.683587617200 1.887935380250
455 1 46.724016843589 34.683587617200 0.943967690125
456 1 42.719101114139 32.371348442720 0.943967690125
457 1 52.063904482856 34.683587617200 0.000000000000
458 1 53.398876392673 32.371348442720 1.887935380250
459 1 48.058988753406 32.371348442720 0.000000000000
460 2 49.393960663223 34.683587617200 1.887935380250
461 1 54.733848302490 34.683587617200 0.943967690125
462 1 50.728932573040 32.371348442720 0.943967690125
463 1 60.073735941757 34.683587617200 0.000000000000
464 2 61.408707851574 32.371348442720 1.887935380250
465 2 56.068820212307 32.371348442720 0.000000000000
466 1 57.403792122124 34.683587617200 1.887935380250
467 2 62.743679761391 34.683587617200 0.943967690125
468 2 58.738764031941 32.371348442720 0.943967690125
469 2 68.083567400658 34.683587617200 0.000000000000
470 3 69.418539310475 32.371348442720 1.887935380250
471 1 64.078651671208 32.371348442720 0.000000000000
472 1 65.413623581025 34.683587617200 1.887935380250
473 1 70.753511220292 34.683587617200 0.943967690125
474 1 66.748595490842 32.371348442720 0.943967690125
475 2 76.093398859559 34.683587617200 0.000000000000
476 1 77.428370769376 32.371348442720 1.887935380250
477 1 72.088483130109 32.371348442720 0.000000000000
478 1 73.423455039926 34.683587617200 1.887935380250
479 1 78.763342679193 34.683587617200 0.943967690125
480 1 74.758426949743 32.371348442720 0.943967690125
481 2 4.004915729450 2.312239174480 2.831903070375
482 1 5.339887639267 0.000000000000 4.719838450625
483 1 0.000000000000 0.000000000000 2.831903070375
484 1 1.334971909817 2.312239174480 4.719838450625
485 3 6.674859549084 2.312239174480 3.775870760500
486 1 2.669943819634 0.000000000000 3.775870760500
487 2 12.014747188351 2.312239174480 2.831903070375
488 3 13.349719098168 0.000000000000 4.719838450625
489 1 8.009831458901 0.000000000000 2.831903070375
490 2 9.344803368718 2.312239174480 4.719838450625
491 1 14.684691007985 2.312239174480 3.775870760500
492 1 10.679775278535 0.000000000000 3.775870760500
493 1 20.024578647252 2.312239174480 2.831903070375
494 2 21.359550557069 0.000000000000 4.719838450625
495 1 16.019662917802 0.000000000000 2.831903070375
496 1 17.354634827619 2.312239174480 4.719838450625
497 1 22.694522466886 2.312239174480 3.775870760500
498 2 18.689606737436 0.000000000000 3.775870760500
499 3 28.034410106153 2.312239174480 2.831903070375
500 3 29.369382015970 0.000000000000 4.719838450625
501 1 24.029494376703 0.000000000000 2.831903070375
502 1 25.364466286520 2.312239174480 4.719838450625
503 1 30.704353925787 2.312239174480 3.775870760500
504 1 26.699438196337 0.000000000000 3.775870760500
505 1 36.044241565054 2.312239174480 2.831903070375
506 1 37.379213474871 0.000000000000 4.719838450625
507 1 32.039325835604 0.000000000000 2.831903070375
508 3 33.374297745421 2.312239174480 4.719838450625
509 2 38.714185384688 2.312239174480 3.775870760500
510 1 34.709269655238 0.000000000000 3.775870760500
511 1 44.054073023955 2.312239174480 2.831903070375
512 1 45.389044933772 0.000000000000 4.719838450625
513 2 40.049157294505 0.000000000000 2.831903070375
514 3 41.384129204322 2.312239174480 4.719838450625
515 2 46.724016843589 2.312239174480 3.775870760500
516 1 42.719101114139 0.000000000000 3.775870760500
517 1 52.063904482856 2.312239174480 2.831903070375
518 1 53.398876392673 0.000000000000 4.719838450625
519 1 48.058988753406 0.000000000000 2.831903070375
520 2 49.393960663223 2.312239174480 4.719838450625
521 2 54.733848302490 2.312239174480 3.775870760500
522 1 50.728932573040 0.000000000000 3.775870760500
523 2 60.073735941757 2.312239174480 2.831903070375
524 3 61.408707851574 0.000000000000 4.719838450625
525 1 56.068820212307 0.000000000000 2.831903070375
526 1 57.403792122124 2.312239174480 4.719838450625
527 1 62.743679761391 2.312239174480 3.775870760500
528 1 58.738764031941 0.000000000000 3.775870760500
529 3 68.083567400658 2.312239174480 2.831903070375
530 1 69.418539310475 0.000000000000 4.719838450625
531 2 64.078651671208 0.000000000000 2.831903070375
532 1 65.413623581025 2.312239174480 4.719838450625
533 1 70.753511220292 2.312239174480 3.775870760500
534 1 66.748595490842 0.000000000000 3.775870760500
535 2 76.093398859559 2.312239174480 2.831903070375
536 1 77.428370769376 0.000000000000 4.719838450625
537 3 72.088483130109 0.000000000000 2.831903070375
538 2 73.423455039926 2.312239174480 4.719838450625
539 3 78.763342679193 2.312239174480 3.775870760500
540 1 74.758426949743 0.000000000000 3.775870760500
541 2 4.004915729450 6.936717523440 2.831903070375
542 1 5.339887639267 4.624478348960 4.719838450625
543 2 0.000000000000 4.624478348960 2.831903070375
544 1 1.334971909817 6.936717523440 4.719838450625
545 1 6.674859549084 6.936717523440 3.775870760500
546 1 2.669943819634 4.624478348960 3.775870760500
547 2 12.014747188351 6.936717523440 2.831903070375
548 1 13.349719098168 4.624478348960 4.719838450625
549 2 8.009831458901 4.624478348960 2.831903070375
550 3 9.344803368718 6.936717523440 4.719838450625
551 1 14.684691007985 6.936717523440 3.775870760500
552 1 10.679775278535 4.624478348960 3.775870760500
553 2 20.024578647252 6.936717523440 2.831903070375
554 1 21.359550557069 4.624478348960 4.719838450625
555 2 16.019662917802 4.624478348960 2.831903070375
556 1 17.354634827619 6.936717523440 4.719838450625
557 1 22.694522466886 6.936717523440 3.775870760500
558 3 18.689606737436 4.624478348960 3.775870760500
559 1 28.034410106153 6.936717523440 2.831903070375
560 2 29.369382015970 4.624478348960 4.719838450625
561 2 24.029494376703 4.624478348960 2.831903070375
562 1 25.364466286520 6.936717523440 4.719838450625
563 2 30.704353925787 6.936717523440 3.775870760500
564 3 26.699438196337 4.624478348960 3.775870760500
565 1 36.044241565054 6.936717523440 2.831903070375
566 1 37.379213474871 4.624478348960 4.719838450625
567 1 32.039325835604 4.624478348960 2.831903070375
568 1 33.374297745421 6.936717523440 4.719838450625
569 2 38.714185384688 6.936717523440 3.775870760500